# vtk DataFile Version 4.2
vtk output
ASCII
DATASET POLYDATA
POINTS 8 float
0.5 0.5 0.5 -0.5 0.5 0.5 0.5 -0.5 0.5 
-0.5 -0.5 0.5 0.5 0.5 -0.5 -0.5 0.5 -0.5 
0.5 -0.5 -0.5 -0.5 -0.5 -0.5 
TRIANGLE_STRIPS 1 17
16 0 1 2 3 6 7 4 5 2 6 0 4 1 5 3 7 

POINT_DATA 8
SCALARS scalars float
LOOKUP_TABLE default
0 1 2 3 4 5 6 7 
